+ 0.1 0 1 tcp 40 ------- 1 0.0 2.0 0 0
- 0.1 0 1 tcp 40 ------- 1 0.0 2.0 0 0
r 0.11016 0 1 tcp 40 ------- 1 0.0 2.0 0 0
+ 0.11016 1 2 tcp 40 ------- 1 0.0 2.0 0 0
- 0.11016 1 2 tcp 40 ------- 1 0.0 2.0 0 0
r 0.130348 1 2 tcp 40 ------- 1 0.0 2.0 0 0
+ 0.130348 2 1 ack 40 ------- 1 2.0 0.0 0 1
- 0.130348 2 1 ack 40 ------- 1 2.0 0.0 0 1
r 0.150536 2 1 ack 40 ------- 1 2.0 0.0 0 1
+ 0.150536 1 0 ack 40 ------- 1 2.0 0.0 0 1
- 0.150536 1 0 ack 40 ------- 1 2.0 0.0 0 1
r 0.160696 1 0 ack 40 ------- 1 2.0 0.0 0 1
+ 0.160696 0 1 tcp 1040 ------- 1 0.0 2.0 1 2
- 0.160696 0 1 tcp 1040 ------- 1 0.0 2.0 1 2
+ 0.160696 0 1 tcp 1040 ------- 1 0.0 2.0 2 3
- 0.164856 0 1 tcp 1040 ------- 1 0.0 2.0 2 3
r 0.174856 0 1 tcp 1040 ------- 1 0.0 2.0 1 2
+ 0.174856 1 2 tcp 1040 ------- 1 0.0 2.0 1 2
- 0.174856 1 2 tcp 1040 ------- 1 0.0 2.0 1 2
r 0.179016 0 1 tcp 1040 ------- 1 0.0 2.0 2 3
+ 0.179016 1 2 tcp 1040 ------- 1 0.0 2.0 2 3
- 0.179751 1 2 tcp 1040 ------- 1 0.0 2.0 2 3
r 0.199751 1 2 tcp 1040 ------- 1 0.0 2.0 1 2
+ 0.199751 2 1 ack 40 ------- 1 2.0 0.0 1 4
- 0.199751 2 1 ack 40 ------- 1 2.0 0.0 1 4
r 0.204645 1 2 tcp 1040 ------- 1 0.0 2.0 2 3
+ 0.204645 2 1 ack 40 ------- 1 2.0 0.0 2 5
- 0.204645 2 1 ack 40 ------- 1 2.0 0.0 2 5
r 0.219939 2 1 ack 40 ------- 1 2.0 0.0 1 4
+ 0.219939 1 0 ack 40 ------- 1 2.0 0.0 1 4
- 0.219939 1 0 ack 40 ------- 1 2.0 0.0 1 4
r 0.224833 2 1 ack 40 ------- 1 2.0 0.0 2 5
+ 0.224833 1 0 ack 40 ------- 1 2.0 0.0 2 5
- 0.224833 1 0 ack 40 ------- 1 2.0 0.0 2 5
r 0.230099 1 0 ack 40 ------- 1 2.0 0.0 1 4
+ 0.230099 0 1 tcp 1040 ------- 1 0.0 2.0 3 6
- 0.230099 0 1 tcp 1040 ------- 1 0.0 2.0 3 6
+ 0.230099 0 1 tcp 1040 ------- 1 0.0 2.0 4 7
- 0.234259 0 1 tcp 1040 ------- 1 0.0 2.0 4 7
r 0.234993 1 0 ack 40 ------- 1 2.0 0.0 2 5
+ 0.234993 0 1 tcp 1040 ------- 1 0.0 2.0 5 8
+ 0.234993 0 1 tcp 1040 ------- 1 0.0 2.0 6 9
- 0.238419 0 1 tcp 1040 ------- 1 0.0 2.0 5 8
- 0.242579 0 1 tcp 1040 ------- 1 0.0 2.0 6 9
r 0.244259 0 1 tcp 1040 ------- 1 0.0 2.0 3 6
+ 0.244259 1 2 tcp 1040 ------- 1 0.0 2.0 3 6
- 0.244259 1 2 tcp 1040 ------- 1 0.0 2.0 3 6
r 0.248419 0 1 tcp 1040 ------- 1 0.0 2.0 4 7
+ 0.248419 1 2 tcp 1040 ------- 1 0.0 2.0 4 7
- 0.249153 1 2 tcp 1040 ------- 1 0.0 2.0 4 7
r 0.252579 0 1 tcp 1040 ------- 1 0.0 2.0 5 8
+ 0.252579 1 2 tcp 1040 ------- 1 0.0 2.0 5 8
- 0.254047 1 2 tcp 1040 ------- 1 0.0 2.0 5 8
r 0.256739 0 1 tcp 1040 ------- 1 0.0 2.0 6 9
+ 0.256739 1 2 tcp 1040 ------- 1 0.0 2.0 6 9
- 0.258941 1 2 tcp 1040 ------- 1 0.0 2.0 6 9
r 0.269153 1 2 tcp 1040 ------- 1 0.0 2.0 3 6
+ 0.269153 2 1 ack 40 ------- 1 2.0 0.0 3 10
- 0.269153 2 1 ack 40 ------- 1 2.0 0.0 3 10
r 0.274047 1 2 tcp 1040 ------- 1 0.0 2.0 4 7
+ 0.274047 2 1 ack 40 ------- 1 2.0 0.0 4 11
- 0.274047 2 1 ack 40 ------- 1 2.0 0.0 4 11
r 0.278941 1 2 tcp 1040 ------- 1 0.0 2.0 5 8
+ 0.278941 2 1 ack 40 ------- 1 2.0 0.0 5 12
- 0.278941 2 1 ack 40 ------- 1 2.0 0.0 5 12
r 0.283835 1 2 tcp 1040 ------- 1 0.0 2.0 6 9
+ 0.283835 2 1 ack 40 ------- 1 2.0 0.0 6 13
- 0.283835 2 1 ack 40 ------- 1 2.0 0.0 6 13
r 0.289341 2 1 ack 40 ------- 1 2.0 0.0 3 10
+ 0.289341 1 0 ack 40 ------- 1 2.0 0.0 3 10
- 0.289341 1 0 ack 40 ------- 1 2.0 0.0 3 10
r 0.294235 2 1 ack 40 ------- 1 2.0 0.0 4 11
+ 0.294235 1 0 ack 40 ------- 1 2.0 0.0 4 11
- 0.294235 1 0 ack 40 ------- 1 2.0 0.0 4 11
r 0.299129 2 1 ack 40 ------- 1 2.0 0.0 5 12
+ 0.299129 1 0 ack 40 ------- 1 2.0 0.0 5 12
- 0.299129 1 0 ack 40 ------- 1 2.0 0.0 5 12
r 0.299501 1 0 ack 40 ------- 1 2.0 0.0 3 10
+ 0.299501 0 1 tcp 1040 ------- 1 0.0 2.0 7 14
- 0.299501 0 1 tcp 1040 ------- 1 0.0 2.0 7 14
+ 0.299501 0 1 tcp 1040 ------- 1 0.0 2.0 8 15
- 0.303661 0 1 tcp 1040 ------- 1 0.0 2.0 8 15
r 0.304024 2 1 ack 40 ------- 1 2.0 0.0 6 13
+ 0.304024 1 0 ack 40 ------- 1 2.0 0.0 6 13
- 0.304024 1 0 ack 40 ------- 1 2.0 0.0 6 13
r 0.304395 1 0 ack 40 ------- 1 2.0 0.0 4 11
+ 0.304395 0 1 tcp 1040 ------- 1 0.0 2.0 9 16
+ 0.304395 0 1 tcp 1040 ------- 1 0.0 2.0 10 17
- 0.307821 0 1 tcp 1040 ------- 1 0.0 2.0 9 16
r 0.309289 1 0 ack 40 ------- 1 2.0 0.0 5 12
+ 0.309289 0 1 tcp 1040 ------- 1 0.0 2.0 11 18
+ 0.309289 0 1 tcp 1040 ------- 1 0.0 2.0 12 19
- 0.311981 0 1 tcp 1040 ------- 1 0.0 2.0 10 17
r 0.313661 0 1 tcp 1040 ------- 1 0.0 2.0 7 14
+ 0.313661 1 2 tcp 1040 ------- 1 0.0 2.0 7 14
- 0.313661 1 2 tcp 1040 ------- 1 0.0 2.0 7 14
r 0.314184 1 0 ack 40 ------- 1 2.0 0.0 6 13
+ 0.314184 0 1 tcp 1040 ------- 1 0.0 2.0 13 20
+ 0.314184 0 1 tcp 1040 ------- 1 0.0 2.0 14 21
- 0.316141 0 1 tcp 1040 ------- 1 0.0 2.0 11 18
r 0.317821 0 1 tcp 1040 ------- 1 0.0 2.0 8 15
+ 0.317821 1 2 tcp 1040 ------- 1 0.0 2.0 8 15
- 0.318555 1 2 tcp 1040 ------- 1 0.0 2.0 8 15
- 0.320301 0 1 tcp 1040 ------- 1 0.0 2.0 12 19
r 0.321981 0 1 tcp 1040 ------- 1 0.0 2.0 9 16
+ 0.321981 1 2 tcp 1040 ------- 1 0.0 2.0 9 16
- 0.323449 1 2 tcp 1040 ------- 1 0.0 2.0 9 16
- 0.324461 0 1 tcp 1040 ------- 1 0.0 2.0 13 20
r 0.326141 0 1 tcp 1040 ------- 1 0.0 2.0 10 17
+ 0.326141 1 2 tcp 1040 ------- 1 0.0 2.0 10 17
- 0.328344 1 2 tcp 1040 ------- 1 0.0 2.0 10 17
- 0.328621 0 1 tcp 1040 ------- 1 0.0 2.0 14 21
r 0.330301 0 1 tcp 1040 ------- 1 0.0 2.0 11 18
+ 0.330301 1 2 tcp 1040 ------- 1 0.0 2.0 11 18
- 0.333238 1 2 tcp 1040 ------- 1 0.0 2.0 11 18
r 0.334461 0 1 tcp 1040 ------- 1 0.0 2.0 12 19
+ 0.334461 1 2 tcp 1040 ------- 1 0.0 2.0 12 19
- 0.338132 1 2 tcp 1040 ------- 1 0.0 2.0 12 19
r 0.338555 1 2 tcp 1040 ------- 1 0.0 2.0 7 14
+ 0.338555 2 1 ack 40 ------- 1 2.0 0.0 7 22
- 0.338555 2 1 ack 40 ------- 1 2.0 0.0 7 22
r 0.338621 0 1 tcp 1040 ------- 1 0.0 2.0 13 20
+ 0.338621 1 2 tcp 1040 ------- 1 0.0 2.0 13 20
r 0.342781 0 1 tcp 1040 ------- 1 0.0 2.0 14 21
+ 0.342781 1 2 tcp 1040 ------- 1 0.0 2.0 14 21
- 0.343026 1 2 tcp 1040 ------- 1 0.0 2.0 13 20
r 0.343449 1 2 tcp 1040 ------- 1 0.0 2.0 8 15
+ 0.343449 2 1 ack 40 ------- 1 2.0 0.0 8 23
- 0.343449 2 1 ack 40 ------- 1 2.0 0.0 8 23
- 0.34792 1 2 tcp 1040 ------- 1 0.0 2.0 14 21
r 0.348344 1 2 tcp 1040 ------- 1 0.0 2.0 9 16
+ 0.348344 2 1 ack 40 ------- 1 2.0 0.0 9 24
- 0.348344 2 1 ack 40 ------- 1 2.0 0.0 9 24
r 0.353238 1 2 tcp 1040 ------- 1 0.0 2.0 10 17
+ 0.353238 2 1 ack 40 ------- 1 2.0 0.0 10 25
- 0.353238 2 1 ack 40 ------- 1 2.0 0.0 10 25
r 0.358132 1 2 tcp 1040 ------- 1 0.0 2.0 11 18
+ 0.358132 2 1 ack 40 ------- 1 2.0 0.0 11 26
- 0.358132 2 1 ack 40 ------- 1 2.0 0.0 11 26
r 0.358744 2 1 ack 40 ------- 1 2.0 0.0 7 22
+ 0.358744 1 0 ack 40 ------- 1 2.0 0.0 7 22
- 0.358744 1 0 ack 40 ------- 1 2.0 0.0 7 22
r 0.363026 1 2 tcp 1040 ------- 1 0.0 2.0 12 19
+ 0.363026 2 1 ack 40 ------- 1 2.0 0.0 12 27
- 0.363026 2 1 ack 40 ------- 1 2.0 0.0 12 27
r 0.363638 2 1 ack 40 ------- 1 2.0 0.0 8 23
+ 0.363638 1 0 ack 40 ------- 1 2.0 0.0 8 23
- 0.363638 1 0 ack 40 ------- 1 2.0 0.0 8 23
r 0.36792 1 2 tcp 1040 ------- 1 0.0 2.0 13 20
+ 0.36792 2 1 ack 40 ------- 1 2.0 0.0 13 28
- 0.36792 2 1 ack 40 ------- 1 2.0 0.0 13 28
r 0.368532 2 1 ack 40 ------- 1 2.0 0.0 9 24
+ 0.368532 1 0 ack 40 ------- 1 2.0 0.0 9 24
- 0.368532 1 0 ack 40 ------- 1 2.0 0.0 9 24
r 0.368904 1 0 ack 40 ------- 1 2.0 0.0 7 22
+ 0.368904 0 1 tcp 1040 ------- 1 0.0 2.0 15 29
- 0.368904 0 1 tcp 1040 ------- 1 0.0 2.0 15 29
+ 0.368904 0 1 tcp 1040 ------- 1 0.0 2.0 16 30
r 0.372814 1 2 tcp 1040 ------- 1 0.0 2.0 14 21
+ 0.372814 2 1 ack 40 ------- 1 2.0 0.0 14 31
- 0.372814 2 1 ack 40 ------- 1 2.0 0.0 14 31
- 0.373064 0 1 tcp 1040 ------- 1 0.0 2.0 16 30
r 0.373426 2 1 ack 40 ------- 1 2.0 0.0 10 25
+ 0.373426 1 0 ack 40 ------- 1 2.0 0.0 10 25
- 0.373426 1 0 ack 40 ------- 1 2.0 0.0 10 25
r 0.373798 1 0 ack 40 ------- 1 2.0 0.0 8 23
+ 0.373798 0 1 tcp 1040 ------- 1 0.0 2.0 17 32
+ 0.373798 0 1 tcp 1040 ------- 1 0.0 2.0 18 33
- 0.377224 0 1 tcp 1040 ------- 1 0.0 2.0 17 32
r 0.37832 2 1 ack 40 ------- 1 2.0 0.0 11 26
+ 0.37832 1 0 ack 40 ------- 1 2.0 0.0 11 26
- 0.37832 1 0 ack 40 ------- 1 2.0 0.0 11 26
r 0.378692 1 0 ack 40 ------- 1 2.0 0.0 9 24
+ 0.378692 0 1 tcp 1040 ------- 1 0.0 2.0 19 34
+ 0.378692 0 1 tcp 1040 ------- 1 0.0 2.0 20 35
- 0.381384 0 1 tcp 1040 ------- 1 0.0 2.0 18 33
r 0.383064 0 1 tcp 1040 ------- 1 0.0 2.0 15 29
+ 0.383064 1 2 tcp 1040 ------- 1 0.0 2.0 15 29
- 0.383064 1 2 tcp 1040 ------- 1 0.0 2.0 15 29
r 0.383214 2 1 ack 40 ------- 1 2.0 0.0 12 27
+ 0.383214 1 0 ack 40 ------- 1 2.0 0.0 12 27
- 0.383214 1 0 ack 40 ------- 1 2.0 0.0 12 27
r 0.383586 1 0 ack 40 ------- 1 2.0 0.0 10 25
+ 0.383586 0 1 tcp 1040 ------- 1 0.0 2.0 21 36
+ 0.383586 0 1 tcp 1040 ------- 1 0.0 2.0 22 37
- 0.385544 0 1 tcp 1040 ------- 1 0.0 2.0 19 34
r 0.387224 0 1 tcp 1040 ------- 1 0.0 2.0 16 30
+ 0.387224 1 2 tcp 1040 ------- 1 0.0 2.0 16 30
- 0.387958 1 2 tcp 1040 ------- 1 0.0 2.0 16 30
r 0.388108 2 1 ack 40 ------- 1 2.0 0.0 13 28
+ 0.388108 1 0 ack 40 ------- 1 2.0 0.0 13 28
- 0.388108 1 0 ack 40 ------- 1 2.0 0.0 13 28
r 0.38848 1 0 ack 40 ------- 1 2.0 0.0 11 26
+ 0.38848 0 1 tcp 1040 ------- 1 0.0 2.0 23 38
+ 0.38848 0 1 tcp 1040 ------- 1 0.0 2.0 24 39
- 0.389704 0 1 tcp 1040 ------- 1 0.0 2.0 20 35
r 0.391384 0 1 tcp 1040 ------- 1 0.0 2.0 17 32
+ 0.391384 1 2 tcp 1040 ------- 1 0.0 2.0 17 32
- 0.392852 1 2 tcp 1040 ------- 1 0.0 2.0 17 32
r 0.393002 2 1 ack 40 ------- 1 2.0 0.0 14 31
+ 0.393002 1 0 ack 40 ------- 1 2.0 0.0 14 31
- 0.393002 1 0 ack 40 ------- 1 2.0 0.0 14 31
r 0.393374 1 0 ack 40 ------- 1 2.0 0.0 12 27
+ 0.393374 0 1 tcp 1040 ------- 1 0.0 2.0 25 40
+ 0.393374 0 1 tcp 1040 ------- 1 0.0 2.0 26 41
- 0.393864 0 1 tcp 1040 ------- 1 0.0 2.0 21 36
r 0.395544 0 1 tcp 1040 ------- 1 0.0 2.0 18 33
+ 0.395544 1 2 tcp 1040 ------- 1 0.0 2.0 18 33
- 0.397746 1 2 tcp 1040 ------- 1 0.0 2.0 18 33
- 0.398024 0 1 tcp 1040 ------- 1 0.0 2.0 22 37
r 0.398268 1 0 ack 40 ------- 1 2.0 0.0 13 28
+ 0.398268 0 1 tcp 1040 ------- 1 0.0 2.0 27 42
+ 0.398268 0 1 tcp 1040 ------- 1 0.0 2.0 28 43
r 0.399704 0 1 tcp 1040 ------- 1 0.0 2.0 19 34
+ 0.399704 1 2 tcp 1040 ------- 1 0.0 2.0 19 34
- 0.402184 0 1 tcp 1040 ------- 1 0.0 2.0 23 38
- 0.40264 1 2 tcp 1040 ------- 1 0.0 2.0 19 34
r 0.403162 1 0 ack 40 ------- 1 2.0 0.0 14 31
+ 0.403162 0 1 tcp 1040 ------- 1 0.0 2.0 29 44
+ 0.403162 0 1 tcp 1040 ------- 1 0.0 2.0 30 45
r 0.403864 0 1 tcp 1040 ------- 1 0.0 2.0 20 35
+ 0.403864 1 2 tcp 1040 ------- 1 0.0 2.0 20 35
- 0.406344 0 1 tcp 1040 ------- 1 0.0 2.0 24 39
- 0.407534 1 2 tcp 1040 ------- 1 0.0 2.0 20 35
r 0.407958 1 2 tcp 1040 ------- 1 0.0 2.0 15 29
+ 0.407958 2 1 ack 40 ------- 1 2.0 0.0 15 46
- 0.407958 2 1 ack 40 ------- 1 2.0 0.0 15 46
r 0.408024 0 1 tcp 1040 ------- 1 0.0 2.0 21 36
+ 0.408024 1 2 tcp 1040 ------- 1 0.0 2.0 21 36
- 0.410504 0 1 tcp 1040 ------- 1 0.0 2.0 25 40
r 0.412184 0 1 tcp 1040 ------- 1 0.0 2.0 22 37
+ 0.412184 1 2 tcp 1040 ------- 1 0.0 2.0 22 37
- 0.412428 1 2 tcp 1040 ------- 1 0.0 2.0 21 36
r 0.412852 1 2 tcp 1040 ------- 1 0.0 2.0 16 30
+ 0.412852 2 1 ack 40 ------- 1 2.0 0.0 16 47
- 0.412852 2 1 ack 40 ------- 1 2.0 0.0 16 47
- 0.414664 0 1 tcp 1040 ------- 1 0.0 2.0 26 41
r 0.416344 0 1 tcp 1040 ------- 1 0.0 2.0 23 38
+ 0.416344 1 2 tcp 1040 ------- 1 0.0 2.0 23 38
- 0.417322 1 2 tcp 1040 ------- 1 0.0 2.0 22 37
r 0.417746 1 2 tcp 1040 ------- 1 0.0 2.0 17 32
+ 0.417746 2 1 ack 40 ------- 1 2.0 0.0 17 48
- 0.417746 2 1 ack 40 ------- 1 2.0 0.0 17 48
- 0.418824 0 1 tcp 1040 ------- 1 0.0 2.0 27 42
r 0.420504 0 1 tcp 1040 ------- 1 0.0 2.0 24 39
+ 0.420504 1 2 tcp 1040 ------- 1 0.0 2.0 24 39
- 0.422216 1 2 tcp 1040 ------- 1 0.0 2.0 23 38
r 0.42264 1 2 tcp 1040 ------- 1 0.0 2.0 18 33
+ 0.42264 2 1 ack 40 ------- 1 2.0 0.0 18 49
- 0.42264 2 1 ack 40 ------- 1 2.0 0.0 18 49
- 0.422984 0 1 tcp 1040 ------- 1 0.0 2.0 28 43
r 0.424664 0 1 tcp 1040 ------- 1 0.0 2.0 25 40
+ 0.424664 1 2 tcp 1040 ------- 1 0.0 2.0 25 40
- 0.427111 1 2 tcp 1040 ------- 1 0.0 2.0 24 39
- 0.427144 0 1 tcp 1040 ------- 1 0.0 2.0 29 44
r 0.427534 1 2 tcp 1040 ------- 1 0.0 2.0 19 34
+ 0.427534 2 1 ack 40 ------- 1 2.0 0.0 19 50
- 0.427534 2 1 ack 40 ------- 1 2.0 0.0 19 50
r 0.428146 2 1 ack 40 ------- 1 2.0 0.0 15 46
+ 0.428146 1 0 ack 40 ------- 1 2.0 0.0 15 46
- 0.428146 1 0 ack 40 ------- 1 2.0 0.0 15 46
r 0.428824 0 1 tcp 1040 ------- 1 0.0 2.0 26 41
+ 0.428824 1 2 tcp 1040 ------- 1 0.0 2.0 26 41
- 0.431304 0 1 tcp 1040 ------- 1 0.0 2.0 30 45
- 0.432005 1 2 tcp 1040 ------- 1 0.0 2.0 25 40
r 0.432428 1 2 tcp 1040 ------- 1 0.0 2.0 20 35
+ 0.432428 2 1 ack 40 ------- 1 2.0 0.0 20 51
- 0.432428 2 1 ack 40 ------- 1 2.0 0.0 20 51
r 0.432984 0 1 tcp 1040 ------- 1 0.0 2.0 27 42
+ 0.432984 1 2 tcp 1040 ------- 1 0.0 2.0 27 42
r 0.43304 2 1 ack 40 ------- 1 2.0 0.0 16 47
+ 0.43304 1 0 ack 40 ------- 1 2.0 0.0 16 47
- 0.43304 1 0 ack 40 ------- 1 2.0 0.0 16 47
- 0.436899 1 2 tcp 1040 ------- 1 0.0 2.0 26 41
r 0.437144 0 1 tcp 1040 ------- 1 0.0 2.0 28 43
+ 0.437144 1 2 tcp 1040 ------- 1 0.0 2.0 28 43
r 0.437322 1 2 tcp 1040 ------- 1 0.0 2.0 21 36
+ 0.437322 2 1 ack 40 ------- 1 2.0 0.0 21 52
- 0.437322 2 1 ack 40 ------- 1 2.0 0.0 21 52
r 0.437934 2 1 ack 40 ------- 1 2.0 0.0 17 48
+ 0.437934 1 0 ack 40 ------- 1 2.0 0.0 17 48
- 0.437934 1 0 ack 40 ------- 1 2.0 0.0 17 48
r 0.438306 1 0 ack 40 ------- 1 2.0 0.0 15 46
+ 0.438306 0 1 tcp 1040 ------- 1 0.0 2.0 31 53
- 0.438306 0 1 tcp 1040 ------- 1 0.0 2.0 31 53
+ 0.438306 0 1 tcp 1040 ------- 1 0.0 2.0 32 54
r 0.441304 0 1 tcp 1040 ------- 1 0.0 2.0 29 44
+ 0.441304 1 2 tcp 1040 ------- 1 0.0 2.0 29 44
- 0.441793 1 2 tcp 1040 ------- 1 0.0 2.0 27 42
r 0.442216 1 2 tcp 1040 ------- 1 0.0 2.0 22 37
+ 0.442216 2 1 ack 40 ------- 1 2.0 0.0 22 55
- 0.442216 2 1 ack 40 ------- 1 2.0 0.0 22 55
- 0.442466 0 1 tcp 1040 ------- 1 0.0 2.0 32 54
r 0.442828 2 1 ack 40 ------- 1 2.0 0.0 18 49
+ 0.442828 1 0 ack 40 ------- 1 2.0 0.0 18 49
- 0.442828 1 0 ack 40 ------- 1 2.0 0.0 18 49
r 0.4432 1 0 ack 40 ------- 1 2.0 0.0 16 47
+ 0.4432 0 1 tcp 1040 ------- 1 0.0 2.0 33 56
+ 0.4432 0 1 tcp 1040 ------- 1 0.0 2.0 34 57
r 0.445464 0 1 tcp 1040 ------- 1 0.0 2.0 30 45
+ 0.445464 1 2 tcp 1040 ------- 1 0.0 2.0 30 45
- 0.446626 0 1 tcp 1040 ------- 1 0.0 2.0 33 56
- 0.446687 1 2 tcp 1040 ------- 1 0.0 2.0 28 43
r 0.447111 1 2 tcp 1040 ------- 1 0.0 2.0 23 38
+ 0.447111 2 1 ack 40 ------- 1 2.0 0.0 23 58
- 0.447111 2 1 ack 40 ------- 1 2.0 0.0 23 58
r 0.447722 2 1 ack 40 ------- 1 2.0 0.0 19 50
+ 0.447722 1 0 ack 40 ------- 1 2.0 0.0 19 50
- 0.447722 1 0 ack 40 ------- 1 2.0 0.0 19 50
r 0.448094 1 0 ack 40 ------- 1 2.0 0.0 17 48
+ 0.448094 0 1 tcp 1040 ------- 1 0.0 2.0 35 59
+ 0.448094 0 1 tcp 1040 ------- 1 0.0 2.0 36 60
- 0.450786 0 1 tcp 1040 ------- 1 0.0 2.0 34 57
- 0.451581 1 2 tcp 1040 ------- 1 0.0 2.0 29 44
r 0.452005 1 2 tcp 1040 ------- 1 0.0 2.0 24 39
+ 0.452005 2 1 ack 40 ------- 1 2.0 0.0 24 61
- 0.452005 2 1 ack 40 ------- 1 2.0 0.0 24 61
r 0.452466 0 1 tcp 1040 ------- 1 0.0 2.0 31 53
+ 0.452466 1 2 tcp 1040 ------- 1 0.0 2.0 31 53
r 0.452616 2 1 ack 40 ------- 1 2.0 0.0 20 51
+ 0.452616 1 0 ack 40 ------- 1 2.0 0.0 20 51
- 0.452616 1 0 ack 40 ------- 1 2.0 0.0 20 51
r 0.452988 1 0 ack 40 ------- 1 2.0 0.0 18 49
+ 0.452988 0 1 tcp 1040 ------- 1 0.0 2.0 37 62
+ 0.452988 0 1 tcp 1040 ------- 1 0.0 2.0 38 63
- 0.454946 0 1 tcp 1040 ------- 1 0.0 2.0 35 59
- 0.456475 1 2 tcp 1040 ------- 1 0.0 2.0 30 45
r 0.456626 0 1 tcp 1040 ------- 1 0.0 2.0 32 54
+ 0.456626 1 2 tcp 1040 ------- 1 0.0 2.0 32 54
r 0.456899 1 2 tcp 1040 ------- 1 0.0 2.0 25 40
+ 0.456899 2 1 ack 40 ------- 1 2.0 0.0 25 64
- 0.456899 2 1 ack 40 ------- 1 2.0 0.0 25 64
r 0.457511 2 1 ack 40 ------- 1 2.0 0.0 21 52
+ 0.457511 1 0 ack 40 ------- 1 2.0 0.0 21 52
- 0.457511 1 0 ack 40 ------- 1 2.0 0.0 21 52
r 0.457882 1 0 ack 40 ------- 1 2.0 0.0 19 50
+ 0.457882 0 1 tcp 1040 ------- 1 0.0 2.0 39 65
- 0.459106 0 1 tcp 1040 ------- 1 0.0 2.0 36 60
r 0.460786 0 1 tcp 1040 ------- 1 0.0 2.0 33 56
+ 0.460786 1 2 tcp 1040 ------- 1 0.0 2.0 33 56
- 0.461369 1 2 tcp 1040 ------- 1 0.0 2.0 31 53
r 0.461793 1 2 tcp 1040 ------- 1 0.0 2.0 26 41
+ 0.461793 2 1 ack 40 ------- 1 2.0 0.0 26 66
- 0.461793 2 1 ack 40 ------- 1 2.0 0.0 26 66
r 0.462405 2 1 ack 40 ------- 1 2.0 0.0 22 55
+ 0.462405 1 0 ack 40 ------- 1 2.0 0.0 22 55
- 0.462405 1 0 ack 40 ------- 1 2.0 0.0 22 55
r 0.462776 1 0 ack 40 ------- 1 2.0 0.0 20 51
+ 0.462776 0 1 tcp 1040 ------- 1 0.0 2.0 40 67
- 0.463266 0 1 tcp 1040 ------- 1 0.0 2.0 37 62
r 0.464946 0 1 tcp 1040 ------- 1 0.0 2.0 34 57
+ 0.464946 1 2 tcp 1040 ------- 1 0.0 2.0 34 57
- 0.466264 1 2 tcp 1040 ------- 1 0.0 2.0 32 54
r 0.466687 1 2 tcp 1040 ------- 1 0.0 2.0 27 42
+ 0.466687 2 1 ack 40 ------- 1 2.0 0.0 27 68
- 0.466687 2 1 ack 40 ------- 1 2.0 0.0 27 68
r 0.467299 2 1 ack 40 ------- 1 2.0 0.0 23 58
+ 0.467299 1 0 ack 40 ------- 1 2.0 0.0 23 58
- 0.467299 1 0 ack 40 ------- 1 2.0 0.0 23 58
- 0.467426 0 1 tcp 1040 ------- 1 0.0 2.0 38 63
r 0.467671 1 0 ack 40 ------- 1 2.0 0.0 21 52
+ 0.467671 0 1 tcp 1040 ------- 1 0.0 2.0 41 69
r 0.469106 0 1 tcp 1040 ------- 1 0.0 2.0 35 59
+ 0.469106 1 2 tcp 1040 ------- 1 0.0 2.0 35 59
- 0.471158 1 2 tcp 1040 ------- 1 0.0 2.0 33 56
r 0.471581 1 2 tcp 1040 ------- 1 0.0 2.0 28 43
+ 0.471581 2 1 ack 40 ------- 1 2.0 0.0 28 70
- 0.471581 2 1 ack 40 ------- 1 2.0 0.0 28 70
- 0.471586 0 1 tcp 1040 ------- 1 0.0 2.0 39 65
r 0.472193 2 1 ack 40 ------- 1 2.0 0.0 24 61
+ 0.472193 1 0 ack 40 ------- 1 2.0 0.0 24 61
- 0.472193 1 0 ack 40 ------- 1 2.0 0.0 24 61
r 0.472565 1 0 ack 40 ------- 1 2.0 0.0 22 55
+ 0.472565 0 1 tcp 1040 ------- 1 0.0 2.0 42 71
r 0.473266 0 1 tcp 1040 ------- 1 0.0 2.0 36 60
+ 0.473266 1 2 tcp 1040 ------- 1 0.0 2.0 36 60
- 0.475746 0 1 tcp 1040 ------- 1 0.0 2.0 40 67
- 0.476052 1 2 tcp 1040 ------- 1 0.0 2.0 34 57
r 0.476475 1 2 tcp 1040 ------- 1 0.0 2.0 29 44
+ 0.476475 2 1 ack 40 ------- 1 2.0 0.0 29 72
- 0.476475 2 1 ack 40 ------- 1 2.0 0.0 29 72
r 0.477087 2 1 ack 40 ------- 1 2.0 0.0 25 64
+ 0.477087 1 0 ack 40 ------- 1 2.0 0.0 25 64
- 0.477087 1 0 ack 40 ------- 1 2.0 0.0 25 64
r 0.477426 0 1 tcp 1040 ------- 1 0.0 2.0 37 62
+ 0.477426 1 2 tcp 1040 ------- 1 0.0 2.0 37 62
r 0.477459 1 0 ack 40 ------- 1 2.0 0.0 23 58
+ 0.477459 0 1 tcp 1040 ------- 1 0.0 2.0 43 73
- 0.479906 0 1 tcp 1040 ------- 1 0.0 2.0 41 69
- 0.480946 1 2 tcp 1040 ------- 1 0.0 2.0 35 59
r 0.481369 1 2 tcp 1040 ------- 1 0.0 2.0 30 45
+ 0.481369 2 1 ack 40 ------- 1 2.0 0.0 30 74
- 0.481369 2 1 ack 40 ------- 1 2.0 0.0 30 74
r 0.481586 0 1 tcp 1040 ------- 1 0.0 2.0 38 63
+ 0.481586 1 2 tcp 1040 ------- 1 0.0 2.0 38 63
r 0.481981 2 1 ack 40 ------- 1 2.0 0.0 26 66
+ 0.481981 1 0 ack 40 ------- 1 2.0 0.0 26 66
- 0.481981 1 0 ack 40 ------- 1 2.0 0.0 26 66
r 0.482353 1 0 ack 40 ------- 1 2.0 0.0 24 61
+ 0.482353 0 1 tcp 1040 ------- 1 0.0 2.0 44 75
- 0.484066 0 1 tcp 1040 ------- 1 0.0 2.0 42 71
r 0.485746 0 1 tcp 1040 ------- 1 0.0 2.0 39 65
+ 0.485746 1 2 tcp 1040 ------- 1 0.0 2.0 39 65
- 0.48584 1 2 tcp 1040 ------- 1 0.0 2.0 36 60
r 0.486264 1 2 tcp 1040 ------- 1 0.0 2.0 31 53
+ 0.486264 2 1 ack 40 ------- 1 2.0 0.0 31 76
- 0.486264 2 1 ack 40 ------- 1 2.0 0.0 31 76
r 0.486875 2 1 ack 40 ------- 1 2.0 0.0 27 68
+ 0.486875 1 0 ack 40 ------- 1 2.0 0.0 27 68
- 0.486875 1 0 ack 40 ------- 1 2.0 0.0 27 68
r 0.487247 1 0 ack 40 ------- 1 2.0 0.0 25 64
+ 0.487247 0 1 tcp 1040 ------- 1 0.0 2.0 45 77
- 0.488226 0 1 tcp 1040 ------- 1 0.0 2.0 43 73
r 0.489906 0 1 tcp 1040 ------- 1 0.0 2.0 40 67
+ 0.489906 1 2 tcp 1040 ------- 1 0.0 2.0 40 67
- 0.490734 1 2 tcp 1040 ------- 1 0.0 2.0 37 62
r 0.491158 1 2 tcp 1040 ------- 1 0.0 2.0 32 54
+ 0.491158 2 1 ack 40 ------- 1 2.0 0.0 32 78
- 0.491158 2 1 ack 40 ------- 1 2.0 0.0 32 78
r 0.491769 2 1 ack 40 ------- 1 2.0 0.0 28 70
+ 0.491769 1 0 ack 40 ------- 1 2.0 0.0 28 70
- 0.491769 1 0 ack 40 ------- 1 2.0 0.0 28 70
r 0.492141 1 0 ack 40 ------- 1 2.0 0.0 26 66
+ 0.492141 0 1 tcp 1040 ------- 1 0.0 2.0 46 79
- 0.492386 0 1 tcp 1040 ------- 1 0.0 2.0 44 75
r 0.494066 0 1 tcp 1040 ------- 1 0.0 2.0 41 69
+ 0.494066 1 2 tcp 1040 ------- 1 0.0 2.0 41 69
- 0.495628 1 2 tcp 1040 ------- 1 0.0 2.0 38 63
r 0.496052 1 2 tcp 1040 ------- 1 0.0 2.0 33 56
+ 0.496052 2 1 ack 40 ------- 1 2.0 0.0 33 80
- 0.496052 2 1 ack 40 ------- 1 2.0 0.0 33 80
- 0.496546 0 1 tcp 1040 ------- 1 0.0 2.0 45 77
r 0.496664 2 1 ack 40 ------- 1 2.0 0.0 29 72
+ 0.496664 1 0 ack 40 ------- 1 2.0 0.0 29 72
- 0.496664 1 0 ack 40 ------- 1 2.0 0.0 29 72
r 0.497035 1 0 ack 40 ------- 1 2.0 0.0 27 68
+ 0.497035 0 1 tcp 1040 ------- 1 0.0 2.0 47 81
r 0.498226 0 1 tcp 1040 ------- 1 0.0 2.0 42 71
+ 0.498226 1 2 tcp 1040 ------- 1 0.0 2.0 42 71
- 0.500522 1 2 tcp 1040 ------- 1 0.0 2.0 39 65
- 0.500706 0 1 tcp 1040 ------- 1 0.0 2.0 46 79
r 0.500946 1 2 tcp 1040 ------- 1 0.0 2.0 34 57
+ 0.500946 2 1 ack 40 ------- 1 2.0 0.0 34 82
- 0.500946 2 1 ack 40 ------- 1 2.0 0.0 34 82
r 0.501558 2 1 ack 40 ------- 1 2.0 0.0 30 74
+ 0.501558 1 0 ack 40 ------- 1 2.0 0.0 30 74
- 0.501558 1 0 ack 40 ------- 1 2.0 0.0 30 74
r 0.501929 1 0 ack 40 ------- 1 2.0 0.0 28 70
+ 0.501929 0 1 tcp 1040 ------- 1 0.0 2.0 48 83
r 0.502386 0 1 tcp 1040 ------- 1 0.0 2.0 43 73
+ 0.502386 1 2 tcp 1040 ------- 1 0.0 2.0 43 73
- 0.504866 0 1 tcp 1040 ------- 1 0.0 2.0 47 81
- 0.505416 1 2 tcp 1040 ------- 1 0.0 2.0 40 67
r 0.50584 1 2 tcp 1040 ------- 1 0.0 2.0 35 59
+ 0.50584 2 1 ack 40 ------- 1 2.0 0.0 35 84
- 0.50584 2 1 ack 40 ------- 1 2.0 0.0 35 84
r 0.506452 2 1 ack 40 ------- 1 2.0 0.0 31 76
+ 0.506452 1 0 ack 40 ------- 1 2.0 0.0 31 76
- 0.506452 1 0 ack 40 ------- 1 2.0 0.0 31 76
r 0.506546 0 1 tcp 1040 ------- 1 0.0 2.0 44 75
+ 0.506546 1 2 tcp 1040 ------- 1 0.0 2.0 44 75
r 0.506824 1 0 ack 40 ------- 1 2.0 0.0 29 72
+ 0.506824 0 1 tcp 1040 ------- 1 0.0 2.0 49 85
- 0.509026 0 1 tcp 1040 ------- 1 0.0 2.0 48 83
- 0.510311 1 2 tcp 1040 ------- 1 0.0 2.0 41 69
r 0.510706 0 1 tcp 1040 ------- 1 0.0 2.0 45 77
+ 0.510706 1 2 tcp 1040 ------- 1 0.0 2.0 45 77
r 0.510734 1 2 tcp 1040 ------- 1 0.0 2.0 36 60
+ 0.510734 2 1 ack 40 ------- 1 2.0 0.0 36 86
- 0.510734 2 1 ack 40 ------- 1 2.0 0.0 36 86
r 0.511346 2 1 ack 40 ------- 1 2.0 0.0 32 78
+ 0.511346 1 0 ack 40 ------- 1 2.0 0.0 32 78
- 0.511346 1 0 ack 40 ------- 1 2.0 0.0 32 78
r 0.511718 1 0 ack 40 ------- 1 2.0 0.0 30 74
+ 0.511718 0 1 tcp 1040 ------- 1 0.0 2.0 50 87
- 0.513186 0 1 tcp 1040 ------- 1 0.0 2.0 49 85
r 0.514866 0 1 tcp 1040 ------- 1 0.0 2.0 46 79
+ 0.514866 1 2 tcp 1040 ------- 1 0.0 2.0 46 79
d 0.514866 1 2 tcp 1040 ------- 1 0.0 2.0 46 79
- 0.515205 1 2 tcp 1040 ------- 1 0.0 2.0 42 71
r 0.515628 1 2 tcp 1040 ------- 1 0.0 2.0 37 62
+ 0.515628 2 1 ack 40 ------- 1 2.0 0.0 37 88
- 0.515628 2 1 ack 40 ------- 1 2.0 0.0 37 88
r 0.51624 2 1 ack 40 ------- 1 2.0 0.0 33 80
+ 0.51624 1 0 ack 40 ------- 1 2.0 0.0 33 80
- 0.51624 1 0 ack 40 ------- 1 2.0 0.0 33 80
r 0.516612 1 0 ack 40 ------- 1 2.0 0.0 31 76
+ 0.516612 0 1 tcp 1040 ------- 1 0.0 2.0 51 89
- 0.517346 0 1 tcp 1040 ------- 1 0.0 2.0 50 87
r 0.519026 0 1 tcp 1040 ------- 1 0.0 2.0 47 81
+ 0.519026 1 2 tcp 1040 ------- 1 0.0 2.0 47 81
- 0.520099 1 2 tcp 1040 ------- 1 0.0 2.0 43 73
r 0.520522 1 2 tcp 1040 ------- 1 0.0 2.0 38 63
+ 0.520522 2 1 ack 40 ------- 1 2.0 0.0 38 90
- 0.520522 2 1 ack 40 ------- 1 2.0 0.0 38 90
r 0.521134 2 1 ack 40 ------- 1 2.0 0.0 34 82
+ 0.521134 1 0 ack 40 ------- 1 2.0 0.0 34 82
- 0.521134 1 0 ack 40 ------- 1 2.0 0.0 34 82
r 0.521506 1 0 ack 40 ------- 1 2.0 0.0 32 78
+ 0.521506 0 1 tcp 1040 ------- 1 0.0 2.0 52 91
- 0.521506 0 1 tcp 1040 ------- 1 0.0 2.0 51 89
r 0.523186 0 1 tcp 1040 ------- 1 0.0 2.0 48 83
+ 0.523186 1 2 tcp 1040 ------- 1 0.0 2.0 48 83
- 0.524993 1 2 tcp 1040 ------- 1 0.0 2.0 44 75
r 0.525416 1 2 tcp 1040 ------- 1 0.0 2.0 39 65
+ 0.525416 2 1 ack 40 ------- 1 2.0 0.0 39 92
- 0.525416 2 1 ack 40 ------- 1 2.0 0.0 39 92
- 0.525666 0 1 tcp 1040 ------- 1 0.0 2.0 52 91
r 0.526028 2 1 ack 40 ------- 1 2.0 0.0 35 84
+ 0.526028 1 0 ack 40 ------- 1 2.0 0.0 35 84
- 0.526028 1 0 ack 40 ------- 1 2.0 0.0 35 84
r 0.5264 1 0 ack 40 ------- 1 2.0 0.0 33 80
+ 0.5264 0 1 tcp 1040 ------- 1 0.0 2.0 53 93
r 0.527346 0 1 tcp 1040 ------- 1 0.0 2.0 49 85
+ 0.527346 1 2 tcp 1040 ------- 1 0.0 2.0 49 85
- 0.529826 0 1 tcp 1040 ------- 1 0.0 2.0 53 93
- 0.529887 1 2 tcp 1040 ------- 1 0.0 2.0 45 77
r 0.530311 1 2 tcp 1040 ------- 1 0.0 2.0 40 67
+ 0.530311 2 1 ack 40 ------- 1 2.0 0.0 40 94
- 0.530311 2 1 ack 40 ------- 1 2.0 0.0 40 94
r 0.530922 2 1 ack 40 ------- 1 2.0 0.0 36 86
+ 0.530922 1 0 ack 40 ------- 1 2.0 0.0 36 86
- 0.530922 1 0 ack 40 ------- 1 2.0 0.0 36 86
r 0.531294 1 0 ack 40 ------- 1 2.0 0.0 34 82
+ 0.531294 0 1 tcp 1040 ------- 1 0.0 2.0 54 95
r 0.531506 0 1 tcp 1040 ------- 1 0.0 2.0 50 87
+ 0.531506 1 2 tcp 1040 ------- 1 0.0 2.0 50 87
- 0.533986 0 1 tcp 1040 ------- 1 0.0 2.0 54 95
- 0.534781 1 2 tcp 1040 ------- 1 0.0 2.0 47 81
r 0.535205 1 2 tcp 1040 ------- 1 0.0 2.0 41 69
+ 0.535205 2 1 ack 40 ------- 1 2.0 0.0 41 96
- 0.535205 2 1 ack 40 ------- 1 2.0 0.0 41 96
r 0.535666 0 1 tcp 1040 ------- 1 0.0 2.0 51 89
+ 0.535666 1 2 tcp 1040 ------- 1 0.0 2.0 51 89
r 0.535816 2 1 ack 40 ------- 1 2.0 0.0 37 88
+ 0.535816 1 0 ack 40 ------- 1 2.0 0.0 37 88
- 0.535816 1 0 ack 40 ------- 1 2.0 0.0 37 88
r 0.536188 1 0 ack 40 ------- 1 2.0 0.0 35 84
+ 0.536188 0 1 tcp 1040 ------- 1 0.0 2.0 55 97
- 0.538146 0 1 tcp 1040 ------- 1 0.0 2.0 55 97
- 0.539675 1 2 tcp 1040 ------- 1 0.0 2.0 48 83
r 0.539826 0 1 tcp 1040 ------- 1 0.0 2.0 52 91
+ 0.539826 1 2 tcp 1040 ------- 1 0.0 2.0 52 91
r 0.540099 1 2 tcp 1040 ------- 1 0.0 2.0 42 71
+ 0.540099 2 1 ack 40 ------- 1 2.0 0.0 42 98
- 0.540099 2 1 ack 40 ------- 1 2.0 0.0 42 98
r 0.540711 2 1 ack 40 ------- 1 2.0 0.0 38 90
+ 0.540711 1 0 ack 40 ------- 1 2.0 0.0 38 90
- 0.540711 1 0 ack 40 ------- 1 2.0 0.0 38 90
r 0.541082 1 0 ack 40 ------- 1 2.0 0.0 36 86
+ 0.541082 0 1 tcp 1040 ------- 1 0.0 2.0 56 99
- 0.542306 0 1 tcp 1040 ------- 1 0.0 2.0 56 99
r 0.543986 0 1 tcp 1040 ------- 1 0.0 2.0 53 93
+ 0.543986 1 2 tcp 1040 ------- 1 0.0 2.0 53 93
d 0.543986 1 2 tcp 1040 ------- 1 0.0 2.0 53 93
- 0.544569 1 2 tcp 1040 ------- 1 0.0 2.0 49 85
r 0.544993 1 2 tcp 1040 ------- 1 0.0 2.0 43 73
+ 0.544993 2 1 ack 40 ------- 1 2.0 0.0 43 100
- 0.544993 2 1 ack 40 ------- 1 2.0 0.0 43 100
r 0.545605 2 1 ack 40 ------- 1 2.0 0.0 39 92
+ 0.545605 1 0 ack 40 ------- 1 2.0 0.0 39 92
- 0.545605 1 0 ack 40 ------- 1 2.0 0.0 39 92
r 0.545976 1 0 ack 40 ------- 1 2.0 0.0 37 88
+ 0.545976 0 1 tcp 1040 ------- 1 0.0 2.0 57 101
- 0.546466 0 1 tcp 1040 ------- 1 0.0 2.0 57 101
r 0.548146 0 1 tcp 1040 ------- 1 0.0 2.0 54 95
+ 0.548146 1 2 tcp 1040 ------- 1 0.0 2.0 54 95
- 0.549464 1 2 tcp 1040 ------- 1 0.0 2.0 50 87
r 0.549887 1 2 tcp 1040 ------- 1 0.0 2.0 44 75
+ 0.549887 2 1 ack 40 ------- 1 2.0 0.0 44 102
- 0.549887 2 1 ack 40 ------- 1 2.0 0.0 44 102
r 0.550499 2 1 ack 40 ------- 1 2.0 0.0 40 94
+ 0.550499 1 0 ack 40 ------- 1 2.0 0.0 40 94
- 0.550499 1 0 ack 40 ------- 1 2.0 0.0 40 94
r 0.550871 1 0 ack 40 ------- 1 2.0 0.0 38 90
+ 0.550871 0 1 tcp 1040 ------- 1 0.0 2.0 58 103
- 0.550871 0 1 tcp 1040 ------- 1 0.0 2.0 58 103
r 0.552306 0 1 tcp 1040 ------- 1 0.0 2.0 55 97
+ 0.552306 1 2 tcp 1040 ------- 1 0.0 2.0 55 97
- 0.554358 1 2 tcp 1040 ------- 1 0.0 2.0 51 89
r 0.554781 1 2 tcp 1040 ------- 1 0.0 2.0 45 77
+ 0.554781 2 1 ack 40 ------- 1 2.0 0.0 45 104
- 0.554781 2 1 ack 40 ------- 1 2.0 0.0 45 104
r 0.555393 2 1 ack 40 ------- 1 2.0 0.0 41 96
+ 0.555393 1 0 ack 40 ------- 1 2.0 0.0 41 96
- 0.555393 1 0 ack 40 ------- 1 2.0 0.0 41 96
r 0.555765 1 0 ack 40 ------- 1 2.0 0.0 39 92
+ 0.555765 0 1 tcp 1040 ------- 1 0.0 2.0 59 105
- 0.555765 0 1 tcp 1040 ------- 1 0.0 2.0 59 105
r 0.556466 0 1 tcp 1040 ------- 1 0.0 2.0 56 99
+ 0.556466 1 2 tcp 1040 ------- 1 0.0 2.0 56 99
- 0.559252 1 2 tcp 1040 ------- 1 0.0 2.0 52 91
r 0.559675 1 2 tcp 1040 ------- 1 0.0 2.0 47 81
+ 0.559675 2 1 ack 40 ------- 1 2.0 0.0 45 106
- 0.559675 2 1 ack 40 ------- 1 2.0 0.0 45 106
r 0.560287 2 1 ack 40 ------- 1 2.0 0.0 42 98
+ 0.560287 1 0 ack 40 ------- 1 2.0 0.0 42 98
- 0.560287 1 0 ack 40 ------- 1 2.0 0.0 42 98
r 0.560626 0 1 tcp 1040 ------- 1 0.0 2.0 57 101
+ 0.560626 1 2 tcp 1040 ------- 1 0.0 2.0 57 101
r 0.560659 1 0 ack 40 ------- 1 2.0 0.0 40 94
+ 0.560659 0 1 tcp 1040 ------- 1 0.0 2.0 60 107
- 0.560659 0 1 tcp 1040 ------- 1 0.0 2.0 60 107
- 0.564146 1 2 tcp 1040 ------- 1 0.0 2.0 54 95
r 0.564569 1 2 tcp 1040 ------- 1 0.0 2.0 48 83
+ 0.564569 2 1 ack 40 ------- 1 2.0 0.0 45 108
- 0.564569 2 1 ack 40 ------- 1 2.0 0.0 45 108
r 0.565031 0 1 tcp 1040 ------- 1 0.0 2.0 58 103
+ 0.565031 1 2 tcp 1040 ------- 1 0.0 2.0 58 103
r 0.565181 2 1 ack 40 ------- 1 2.0 0.0 43 100
+ 0.565181 1 0 ack 40 ------- 1 2.0 0.0 43 100
- 0.565181 1 0 ack 40 ------- 1 2.0 0.0 43 100
r 0.565553 1 0 ack 40 ------- 1 2.0 0.0 41 96
+ 0.565553 0 1 tcp 1040 ------- 1 0.0 2.0 61 109
- 0.565553 0 1 tcp 1040 ------- 1 0.0 2.0 61 109
- 0.56904 1 2 tcp 1040 ------- 1 0.0 2.0 55 97
r 0.569464 1 2 tcp 1040 ------- 1 0.0 2.0 49 85
+ 0.569464 2 1 ack 40 ------- 1 2.0 0.0 45 110
- 0.569464 2 1 ack 40 ------- 1 2.0 0.0 45 110
r 0.569925 0 1 tcp 1040 ------- 1 0.0 2.0 59 105
+ 0.569925 1 2 tcp 1040 ------- 1 0.0 2.0 59 105
r 0.570075 2 1 ack 40 ------- 1 2.0 0.0 44 102
+ 0.570075 1 0 ack 40 ------- 1 2.0 0.0 44 102
- 0.570075 1 0 ack 40 ------- 1 2.0 0.0 44 102
r 0.570447 1 0 ack 40 ------- 1 2.0 0.0 42 98
+ 0.570447 0 1 tcp 1040 ------- 1 0.0 2.0 62 111
- 0.570447 0 1 tcp 1040 ------- 1 0.0 2.0 62 111
- 0.573934 1 2 tcp 1040 ------- 1 0.0 2.0 56 99
r 0.574358 1 2 tcp 1040 ------- 1 0.0 2.0 50 87
+ 0.574358 2 1 ack 40 ------- 1 2.0 0.0 45 112
- 0.574358 2 1 ack 40 ------- 1 2.0 0.0 45 112
r 0.574819 0 1 tcp 1040 ------- 1 0.0 2.0 60 107
+ 0.574819 1 2 tcp 1040 ------- 1 0.0 2.0 60 107
r 0.574969 2 1 ack 40 ------- 1 2.0 0.0 45 104
+ 0.574969 1 0 ack 40 ------- 1 2.0 0.0 45 104
- 0.574969 1 0 ack 40 ------- 1 2.0 0.0 45 104
r 0.575341 1 0 ack 40 ------- 1 2.0 0.0 43 100
+ 0.575341 0 1 tcp 1040 ------- 1 0.0 2.0 63 113
- 0.575341 0 1 tcp 1040 ------- 1 0.0 2.0 63 113
- 0.578828 1 2 tcp 1040 ------- 1 0.0 2.0 57 101